# vtk DataFile Version 3.0
vtk output
ASCII
DATASET STRUCTURED_GRID
DIMENSIONS 129 129 1
POINTS 16641 float
0 0 0
0 0.00775194 0
0 0.0155039 0
0 0.0232558 0
0 0.0310078 0
0 0.0387597 0
0 0.0465116 0
0 0.0542636 0
0 0.0620155 0
0 0.0697674 0
0 0.0775194 0
0 0.0852713 0
0 0.0930233 0
0 0.100775 0
0 0.108527 0
0 0.116279 0
0 0.124031 0
0 0.131783 0
0 0.139535 0
0 0.147287 0
0 0.155039 0
0 0.162791 0
0 0.170543 0
0 0.178295 0
0 0.186047 0
0 0.193798 0
0 0.20155 0
0 0.209302 0
0 0.217054 0
0 0.224806 0
0 0.232558 0
0 0.24031 0
0 0.248062 0
0 0.255814 0
0 0.263566 0
0 0.271318 0
0 0.27907 0
0 0.286822 0
0 0.294574 0
0 0.302326 0
0 0.310078 0
0 0.317829 0
0 0.325581 0
0 0.333333 0
0 0.341085 0
0 0.348837 0
0 0.356589 0
0 0.364341 0
0 0.372093 0
0 0.379845 0
0 0.387597 0
0 0.395349 0
0 0.403101 0
0 0.410853 0
0 0.418605 0
0 0.426357 0
0 0.434109 0
0 0.44186 0
0 0.449612 0
0 0.457364 0
0 0.465116 0
0 0.472868 0
0 0.48062 0
0 0.488372 0
0 0.496124 0
0 0.503876 0
0 0.511628 0
0 0.51938 0
0 0.527132 0
0 0.534884 0
0 0.542636 0
0 0.550388 0
0 0.55814 0
0 0.565891 0
0 0.573643 0
0 0.581395 0
0 0.589147 0
0 0.596899 0
0 0.604651 0
0 0.612403 0
0 0.620155 0
0 0.627907 0
0 0.635659 0
0 0.643411 0
0 0.651163 0
0 0.658915 0
0 0.666667 0
0 0.674419 0
0 0.682171 0
0 0.689922 0
0 0.697674 0
0 0.705426 0
0 0.713178 0
0 0.72093 0
0 0.728682 0
0 0.736434 0
0 0.744186 0
0 0.751938 0
0 0.75969 0
0 0.767442 0
0 0.775194 0
0 0.782946 0
0 0.790698 0
0 0.79845 0
0 0.806202 0
0 0.813953 0
0 0.821705 0
0 0.829457 0
0 0.837209 0
0 0.844961 0
0 0.852713 0
0 0.860465 0
0 0.868217 0
0 0.875969 0
0 0.883721 0
0 0.891473 0
0 0.899225 0
0 0.906977 0
0 0.914729 0
0 0.922481 0
0 0.930233 0
0 0.937984 0
0 0.945736 0
0 0.953488 0
0 0.96124 0
0 0.968992 0
0 0.976744 0
0 0.984496 0
0 0.992248 0
0.00775194 0 0
0.00775194 0.00775194 0
0.00775194 0.0155039 0
0.00775194 0.0232558 0
0.00775194 0.0310078 0
0.00775194 0.0387597 0
0.00775194 0.0465116 0
0.00775194 0.0542636 0
0.00775194 0.0620155 0
0.00775194 0.0697674 0
0.00775194 0.0775194 0
0.00775194 0.0852713 0
0.00775194 0.0930233 0
0.00775194 0.100775 0
0.00775194 0.108527 0
0.00775194 0.116279 0
0.00775194 0.124031 0
0.00775194 0.131783 0
0.00775194 0.139535 0
0.00775194 0.147287 0
0.00775194 0.155039 0
0.00775194 0.162791 0
0.00775194 0.170543 0
0.00775194 0.178295 0
0.00775194 0.186047 0
0.00775194 0.193798 0
0.00775194 0.20155 0
0.00775194 0.209302 0
0.00775194 0.217054 0
0.00775194 0.224806 0
0.00775194 0.232558 0
0.00775194 0.24031 0
0.00775194 0.248062 0
0.00775194 0.255814 0
0.00775194 0.263566 0
0.00775194 0.271318 0
0.00775194 0.27907 0
0.00775194 0.286822 0
0.00775194 0.294574 0
0.00775194 0.302326 0
0.00775194 0.310078 0
0.00775194 0.317829 0
0.00775194 0.325581 0
0.00775194 0.333333 0
0.00775194 0.341085 0
0.00775194 0.348837 0
0.00775194 0.356589 0
0.00775194 0.364341 0
0.00775194 0.372093 0
0.00775194 0.379845 0
0.00775194 0.387597 0
0.00775194 0.395349 0
0.00775194 0.403101 0
0.00775194 0.410853 0
0.00775194 0.418605 0
0.00775194 0.426357 0
0.00775194 0.434109 0
0.00775194 0.44186 0
0.00775194 0.449612 0
0.00775194 0.457364 0
0.00775194 0.465116 0
0.00775194 0.472868 0
0.00775194 0.48062 0
0.00775194 0.488372 0
0.00775194 0.496124 0
0.00775194 0.503876 0
0.00775194 0.511628 0
0.00775194 0.51938 0
0.00775194 0.527132 0
0.00775194 0.534884 0
0.00775194 0.542636 0
0.00775194 0.550388 0
0.00775194 0.55814 0
0.00775194 0.565891 0
0.00775194 0.573643 0
0.00775194 0.581395 0
0.00775194 0.589147 0
0.00775194 0.596899 0
0.00775194 0.604651 0
0.00775194 0.612403 0
0.00775194 0.620155 0
0.00775194 0.627907 0
0.00775194 0.635659 0
0.00775194 0.643411 0
0.00775194 0.651163 0
0.00775194 0.658915 0
0.00775194 0.666667 0
0.00775194 0.674419 0
0.00775194 0.682171 0
0.00775194 0.689922 0
0.00775194 0.697674 0
0.00775194 0.705426 0
0.00775194 0.713178 0
0.00775194 0.72093 0
0.00775194 0.728682 0
0.00775194 0.736434 0
0.00775194 0.744186 0
0.00775194 0.751938 0
0.00775194 0.75969 0
0.00775194 0.767442 0
0.00775194 0.775194 0
0.00775194 0.782946 0
0.00775194 0.790698 0
0.00775194 0.79845 0
0.00775194 0.806202 0
0.00775194 0.813953 0
0.00775194 0.821705 0
0.00775194 0.829457 0
0.00775194 0.837209 0
0.00775194 0.844961 0
0.00775194 0.852713 0
0.00775194 0.860465 0
0.00775194 0.868217 0
0.00775194 0.875969 0
0.00775194 0.883721 0
0.00775194 0.891473 0
0.00775194 0.899225 0
0.00775194 0.906977 0
0.00775194 0.914729 0
0.00775194 0.922481 0
0.00775194 0.930233 0
0.00775194 0.937984 0
0.00775194 0.945736 0
0.00775194 0.953488 0
0.00775194 0.96124 0
0.00775194 0.968992 0
0.00775194 0.976744 0
0.00775194 0.984496 0
0.00775194 0.992248 0
0.0155039 0 0
0.0155039 0.00775194 0
0.0155039 0.0155039 0
0.0155039 0.0232558 0
0.0155039 0.0310078 0
0.0155039 0.0387597 0
0.0155039 0.0465116 0
0.0155039 0.0542636 0
0.0155039 0.0620155 0
0.0155039 0.0697674 0
0.0155039 0.0775194 0
0.0155039 0.0852713 0
0.0155039 0.0930233 0
0.0155039 0.100775 0
0.0155039 0.108527 0
0.0155039 0.116279 0
0.0155039 0.124031 0
0.0155039 0.131783 0
0.0155039 0.139535 0
0.0155039 0.147287 0
0.0155039 0.155039 0
0.0155039 0.162791 0
0.0155039 0.170543 0
0.0155039 0.178295 0
0.0155039 0.186047 0
0.0155039 0.193798 0
0.0155039 0.20155 0
0.0155039 0.209302 0
0.0155039 0.217054 0
0.0155039 0.224806 0
0.0155039 0.232558 0
0.0155039 0.24031 0
0.0155039 0.248062 0
0.0155039 0.255814 0
0.0155039 0.263566 0
0.0155039 0.271318 0
0.0155039 0.27907 0
0.0155039 0.286822 0
0.0155039 0.294574 0
0.0155039 0.302326 0
0.0155039 0.310078 0
0.0155039 0.317829 0
0.0155039 0.325581 0
0.0155039 0.333333 0
0.0155039 0.341085 0
0.0155039 0.348837 0
0.0155039 0.356589 0
0.0155039 0.364341 0
0.0155039 0.372093 0
0.0155039 0.379845 0
0.0155039 0.387597 0
0.0155039 0.395349 0
0.0155039 0.403101 0
0.0155039 0.410853 0
0.0155039 0.418605 0
0.0155039 0.426357 0
0.0155039 0.434109 0
0.0155039 0.44186 0
0.0155039 0.449612 0
0.0155039 0.457364 0
0.0155039 0.465116 0
0.0155039 0.472868 0
0.0155039 0.48062 0
0.0155039 0.488372 0
0.0155039 0.496124 0
0.0155039 0.503876 0
0.0155039 0.511628 0
0.0155039 0.51938 0
0.0155039 0.527132 0
0.0155039 0.534884 0
0.0155039 0.542636 0
0.0155039 0.550388 0
0.0155039 0.55814 0
0.0155039 0.565891 0
0.0155039 0.573643 0
0.0155039 0.581395 0
0.0155039 0.589147 0
0.0155039 0.596899 0
0.0155039 0.604651 0
0.0155039 0.612403 0
0.0155039 0.620155 0
0.0155039 0.627907 0
0.0155039 0.635659 0
0.0155039 0.643411 0
0.0155039 0.651163 0
0.0155039 0.658915 0
0.0155039 0.666667 0
0.0155039 0.674419 0
0.0155039 0.682171 0
0.0155039 0.689922 0
0.0155039 0.697674 0
0.0155039 0.705426 0
0.0155039 0.713178 0
0.0155039 0.72093 0
0.0155039 0.728682 0
0.0155039 0.736434 0
0.0155039 0.744186 0
0.0155039 0.751938 0
0.0155039 0.75969 0
0.0155039 0.767442 0
0.0155039 0.775194 0
0.0155039 0.782946 0
0.0155039 0.790698 0
0.0155039 0.79845 0
0.0155039 0.806202 0
0.0155039 0.813953 0
0.0155039 0.821705 0
0.0155039 0.829457 0
0.0155039 0.837209 0
0.0155039 0.844961 0
0.0155039 0.852713 0
0.0155039 0.860465 0
0.0155039 0.868217 0
0.0155039 0.875969 0
0.0155039 0.883721 0
0.0155039 0.891473 0
0.0155039 0.899225 0
0.0155039 0.906977 0
0.0155039 0.914729 0
0.0155039 0.922481 0
0.0155039 0.930233 0
0.0155039 0.937984 0
0.0155039 0.945736 0
0.0155039 0.953488 0
0.0155039 0.96124 0
0.0155039 0.968992 0
0.0155039 0.976744 0
0.0155039 0.984496 0
0.0155039 0.992248 0
0.0232558 0 0
0.0232558 0.00775194 0
0.0232558 0.0155039 0
0.0232558 0.0232558 0
0.0232558 0.0310078 0
0.0232558 0.0387597 0
0.0232558 0.0465116 0
0.0232558 0.0542636 0
0.0232558 0.0620155 0
0.0232558 0.0697674 0
0.0232558 0.0775194 0
0.0232558 0.0852713 0
0.0232558 0.0930233 0
0.0232558 0.100775 0
0.0232558 0.108527 0
0.0232558 0.116279 0
0.0232558 0.124031 0
0.0232558 0.131783 0
0.0232558 0.139535 0
0.0232558 0.147287 0
0.0232558 0.155039 0
0.0232558 0.162791 0
0.0232558 0.170543 0
0.0232558 0.178295 0
0.0232558 0.186047 0
0.0232558 0.193798 0
0.0232558 0.20155 0
0.0232558 0.209302 0
0.0232558 0.217054 0
0.0232558 0.224806 0
0.0232558 0.232558 0
0.0232558 0.24031 0
0.0232558 0.248062 0
0.0232558 0.255814 0
0.0232558 0.263566 0
0.0232558 0.271318 0
0.0232558 0.27907 0
0.0232558 0.286822 0
0.0232558 0.294574 0
0.0232558 0.302326 0
0.0232558 0.310078 0
0.0232558 0.317829 0
0.0232558 0.325581 0
0.0232558 0.333333 0
0.0232558 0.341085 0
0.0232558 0.348837 0
0.0232558 0.356589 0
0.0232558 0.364341 0
0.0232558 0.372093 0
0.0232558 0.379845 0
0.0232558 0.387597 0
0.0232558 0.395349 0
0.0232558 0.403101 0
0.0232558 0.410853 0
0.0232558 0.418605 0
0.0232558 0.426357 0
0.0232558 0.434109 0
0.0232558 0.44186 0
0.0232558 0.449612 0
0.0232558 0.457364 0
0.0232558 0.465116 0
0.0232558 0.472868 0
0.0232558 0.48062 0
0.0232558 0.488372 0
0.0232558 0.496124 0
0.0232558 0.503876 0
0.0232558 0.511628 0
0.0232558 0.51938 0
0.0232558 0.527132 0
0.0232558 0.534884 0
0.0232558 0.542636 0
0.0232558 0.550388 0
0.0232558 0.55814 0
0.0232558 0.565891 0
0.0232558 0.573643 0
0.0232558 0.581395 0
0.0232558 0.589147 0
0.0232558 0.596899 0
0.0232558 0.604651 0
0.0232558 0.612403 0
0.0232558 0.620155 0
0.0232558 0.627907 0
0.0232558 0.635659 0
0.0232558 0.643411 0
0.0232558 0.651163 0
0.0232558 0.658915 0
0.0232558 0.666667 0
0.0232558 0.674419 0
0.0232558 0.682171 0
0.0232558 0.689922 0
0.0232558 0.697674 0
0.0232558 0.705426 0
0.0232558 0.713178 0
0.0232558 0.72093 0
0.0232558 0.728682 0
0.0232558 0.736434 0
0.0232558 0.744186 0
0.0232558 0.751938 0
0.0232558 0.75969 0
0.0232558 0.767442 0
0.0232558 0.775194 0
0.0232558 0.782946 0
0.0232558 0.790698 0
0.0232558 0.79845 0
0.0232558 0.806202 0
0.0232558 0.813953 0
0.0232558 0.821705 0
0.0232558 0.829457 0
0.0232558 0.837209 0
0.0232558 0.844961 0
0.0232558 0.852713 0
0.0232558 0.860465 0
0.0232558 0.868217 0
0.0232558 0.875969 0
0.0232558 0.883721 0
0.0232558 0.891473 0
0.0232558 0.899225 0
0.0232558 0.906977 0
0.0232558 0.914729 0
0.0232558 0.922481 0
0.0232558 0.930233 0
0.0232558 0.937984 0
0.0232558 0.945736 0
0.0232558 0.953488 0
0.0232558 0.96124 0
0.0232558 0.968992 0
0.0232558 0.976744 0
0.0232558 0.984496 0
[...]
CELL_DATA 16384
FIELD FieldData 1
value 1 16384 float
-1
-1
-1
-1
-1
-1
-1
-1
-1
-1
-1
-1
-1
-1
-1
-1
-1
-1
-1
-1
-1
-1
-1
-1
-1
-1
-1
-1
-1
-1
-1
-1
-1
-1
-1
-1
-1
-1
-1
-1
-1
-1
-1
-1
-1
-1
-1
-1
-1
-1
-1
-1
-1
-1
-1
-1
-1
-1
-1
-1
-1
-1
-1
-1
-1
-1
-1
-1
-1
-1
-1
-1
-1
-1
-1
-1
-1
-1
-1
-1
-1
-1
-1
-1
-1
-1
-1
-1
-1
-1
-1
-1
-1
-1
-1
-1
-1
-1
-1
-1
-1
-1
-1
-1
-1
-1
-1
-1
-1
-1
-1
-1
-1
-1
-1
-1
-1
-1
-1
-1
-1
-1
-1
-1
-1
-1
-1
-1
1
0.333333
-0.111111
-0.407407
-0.604938
-0.736626
-0.824417
-0.882945
-0.921963
-0.947975
-0.965317
-0.976878
-0.984585
-0.989724
-0.993149
-0.995433
-0.996955
-0.99797
-0.998647
-0.999098
-0.999399
-0.999599
-0.999733
-0.999822
-0.999881
-0.999921
-0.999947
-0.999965
-0.999977
-0.999984
-0.99999
-0.999993
-0.999995
-0.999997
-0.999998
-0.999999
-0.999999
-0.999999
-1
-1
-1
-1
-1
-1
-1
-1
-1
-1
-1
-1
-1
-1
-1
-1
-1
-1
-1
-1
-1
-1
-1
-1
-1
-1
-1
-1
-1
-1
-1
-1
-1
-1
-1
-1
-1
-1
-1
-1
-1
-1
-1
-1
-1
-1
-1
-1
-1
-1
-1
-1
-1
-1
-1
-1
-1
-1
-1
-1
-1
-1
-1
-1
-1
-1
-1
-1
-1
-1
-1
-1
-1
-1
-1
-1
-1
-1
-1
-1
-1
-1
-1
-1
-1
-1
-1
-1
-1
-1
1
0.777778
0.481481
0.185185
-0.0781893
-0.297668
-0.473251
-0.609816
-0.713865
-0.791902
-0.849707
-0.892097
-0.922927
-0.945192
-0.961178
-0.972596
-0.980716
-0.986467
-0.990527
-0.993384
-0.995389
-0.996792
-0.997772
-0.998456
-0.998931
-0.999261
-0.99949
-0.999648
-0.999757
-0.999833
-0.999885
-0.999921
-0.999946
-0.999963
-0.999975
-0.999983
-0.999988
-0.999992
-0.999994
-0.999996
-0.999997
-0.999998
-0.999999
-0.999999
-0.999999
-1
-1
-1
-1
-1
-1
-1
-1
-1
-1
-1
-1
-1
-1
-1
-1
-1
-1
-1
-1
-1
-1
-1
-1
-1
-1
-1
-1
-1
-1
-1
-1
-1
-1
-1
-1
-1
-1
-1
-1
-1
-1
-1
-1
-1
-1
-1
-1
-1
-1
-1
-1
-1
-1
-1
-1
-1
-1
-1
-1
-1
-1
-1
-1
-1
-1
-1
-1
-1
-1
-1
-1
-1
-1
-1
-1
-1
-1
-1
-1
-1
-1
-1
1
0.925926
0.777778
0.580247
0.360768
0.141289
-0.0635574
-0.245643
-0.401717
-0.531779
-0.637755
-0.722536
-0.789333
-0.841286
-0.88125
-0.911699
-0.934704
-0.951959
-0.964815
-0.974338
-0.981355
-0.986501
-0.990258
-0.99299
-0.994971
-0.996401
-0.99743
-0.99817
-0.998699
-0.999077
-0.999346
-0.999538
-0.999674
-0.99977
-0.999838
-0.999886
-0.99992
-0.999944
-0.999961
-0.999973
-0.999981
-0.999987
-0.999991
-0.999994
-0.999996
-0.999997
-0.999998
-0.999998
-0.999999
-0.999999
-1
-1
-1
-1
-1
-1
-1
-1
-1
-1
-1
-1
-1
-1
-1
-1
-1
-1
-1
-1
-1
-1
-1
-1
-1
-1
-1
-1
-1
-1
-1
-1
-1
-1
-1
-1
-1
-1
-1
-1
-1
-1
-1
-1
-1
-1
-1
-1
-1
-1
-1
-1
-1
-1
-1
-1
-1
-1
-1
-1
-1
-1
-1
-1
-1
-1
-1
-1
-1
-1
-1
-1
-1
-1
-1
-1
-1
-1
1
0.975309
0.909465
0.799726
0.653406
0.482701
0.300615
0.118529
-0.0548866
-0.213851
-0.355152
-0.477613
-0.58152
-0.668108
-0.739155
-0.79667
-0.842681
-0.879107
-0.907676
-0.929897
-0.947049
-0.9602
-0.970219
-0.97781
-0.98353
-0.98782
-0.991024
-0.993406
-0.99517
-0.996472
-0.99743
-0.998133
-0.998647
-0.999021
-0.999294
-0.999491
-0.999634
-0.999738
-0.999812
-0.999866
-0.999904
-0.999932
-0.999951
-0.999965
-0.999975
-0.999983
-0.999988
-0.999991
-0.999994
-0.999996
-0.999997
-0.999998
-0.999998
-0.999999
-0.999999
-0.999999
-1
-1
-1
-1
-1
-1
-1
-1
-1
-1
-1
-1
-1
-1
-1
-1
-1
-1
-1
-1
-1
-1
-1
-1
-1
-1
-1
-1
-1
-1
-1
-1
-1
-1
-1
-1
-1
-1
-1
-1
-1
-1
-1
-1
-1
-1
-1
-1
-1
-1
-1
-1
-1
-1
-1
-1
-1
-1
-1
-1
-1
-1
-1
-1
-1
-1
-1
-1
-1
-1
-1
-1
1
0.99177
0.964335
0.909465
0.824112
0.710308
0.573744
0.422005
0.263041
0.104077
-0.0489991
-0.19187
-0.321753
-0.437205
-0.537855
-0.624127
-0.696978
-0.757688
-0.807684
-0.848422
-0.881298
-0.907598
-0.928472
-0.944918
-0.957789
-0.967799
-0.975541
-0.981496
-0.986054
-0.989527
-0.992161
-0.994152
-0.99565
-0.996774
-0.997614
-0.998239
-0.998704
-0.999049
-0.999303
-0.999491
-0.999628
-0.999729
-0.999803
-0.999857
-0.999897
-0.999925
-0.999946
-0.999961
-0.999972
-0.99998
-0.999986
-0.99999
-0.999993
-0.999995
-0.999996
-0.999997
-0.999998
-0.999999
-0.999999
-0.999999
-1
-1
-1
-1
-1
-1
-1
-1
-1
-1
-1
-1
-1
-1
-1
-1
-1
-1
-1
-1
-1
-1
-1
-1
-1
-1
-1
-1
-1
-1
-1
-1
-1
-1
-1
-1
-1
-1
-1
-1
-1
-1
-1
-1
-1
-1
-1
-1
-1
-1
-1
-1
-1
-1
-1
-1
-1
-1
-1
-1
-1
-1
-1
-1
-1
-1
-1
-1
1
0.997257
0.986283
0.960677
0.915155
0.846873
0.75583
0.644555
0.517384
0.379615
0.236744
0.0938723
-0.0446696
-0.175515
-0.296295
-0.405572
-0.502708
-0.587701
-0.661029
-0.723493
-0.776095
-0.819929
-0.85611
-0.885713
-0.909738
-0.929092
-0.944575
-0.956882
-0.966606
-0.974246
-0.980218
-0.984862
-0.988458
-0.99123
-0.993358
-0.994985
-0.996225
-0.997166
-0.997879
-0.998416
-0.99882
-0.999123
-0.99935
-0.999519
-0.999645
-0.999738
-0.999808
-0.999859
-0.999897
-0.999924
-0.999945
-0.99996
-0.999971
-0.999979
-0.999985
-0.999989
-0.999992
-0.999994
-0.999996
-0.999997
-0.999998
-0.999998
-0.999999
-0.999999
-0.999999
-1
-1
-1
-1
-1
-1
-1
-1
-1
-1
-1
-1
-1
-1
-1
-1
-1
-1
-1
-1
-1
-1
-1
-1
-1
-1
-1
-1
-1
-1
-1
-1
-1
-1
-1
-1
-1
-1
-1
-1
-1
-1
-1
-1
-1
-1
-1
-1
-1
-1
-1
-1
-1
-1
-1
-1
-1
-1
-1
-1
-1
-1
-1
1
0.999086
0.994818
0.983437
0.960677
0.922742
0.867105
0.792922
0.701076
0.593922
0.474863
0.347866
0.217021
0.0861755
-0.0413146
-0.162734
-0.276058
-0.379939
-0.473636
-0.556921
-0.629979
-0.693296
-0.747567
-0.793616
-0.832323
-0.864579
-0.891244
-0.913123
-0.930951
-0.945383
-0.956994
-0.966284
-0.973675
-0.979527
-0.984137
-0.987753
-0.990577
-0.992773
-0.994475
-0.995789
-0.996799
-0.997574
-0.998166
-0.998617
-0.99896
-0.999219
-0.999415
-0.999563
-0.999674
-0.999758
-0.99982
-0.999867
-0.999901
-0.999927
-0.999946
-0.99996
-0.999971
-0.999979
-0.999984
-0.999989
-0.999992
-0.999994
-0.999996
-0.999997
-0.999998
-0.999998
-0.999999
-0.999999
-0.999999
-1
-1
-1
-1
-1
-1
-1
-1
-1
-1
-1
-1
-1
-1
-1
-1
-1
-1
-1
-1
-1
-1
-1
-1
-1
-1
-1
-1
-1
-1
-1
-1
-1
-1
-1
-1
-1
-1
-1
-1
-1
-1
-1
-1
-1
-1
-1
-1
-1
-1
-1
-1
-1
-1
-1
-1
-1
-1
-1
1
0.999695
0.998069
0.993192
0.982354
0.962483
0.93069
0.884767
0.823537
0.746999
0.656287
0.55348
0.441327
0.322943
0.201524
0.0801046
-0.0386164
-0.152391
-0.259472
-0.358622
-0.449074
-0.530482
-0.602843
-0.666434
-0.721731
-0.769347
-0.809979
-0.844361
-0.873224
-0.897277
-0.917183
-0.93355
-0.946925
-0.957792
-0.966574
-0.973634
-0.979281
-0.983779
-0.987344
-0.990159
-0.992372
-0.994106
-0.995459
-0.996512
-0.997328
-0.997958
-0.998444
-0.998817
-0.999103
-0.999321
-0.999487
-0.999614
-0.99971
-0.999782
-0.999837
-0.999878
-0.999909
-0.999932
-0.99995
-0.999963
-0.999972
-0.999979
-0.999985
-0.999989
-0.999992
-0.999994
-0.999996
-0.999997
-0.999998
-0.999998
-0.999999
-0.999999
-0.999999
-1
-1
-1
-1
-1
-1
-1
-1
-1
-1
-1
-1
-1
-1
-1
-1
-1
-1
-1
-1
-1
-1
-1
-1
-1
-1
-1
-1
-1
-1
-1
-1
-1
-1
-1
-1
-1
-1
-1
-1
-1
-1
-1
-1
-1
-1
-1
-1
-1
-1
-1
-1
-1
-1
-1
1
0.999898
0.999289
0.997257
0.992289
0.982354
0.965133
0.938344
0.900075
0.84905
0.784795
0.70769
0.618902
0.520249
0.414007
0.302706
0.188932
0.0751579
-0.0363856
-0.143798
-0.245557
-0.340532
-0.427969
-0.507457
-0.578882
-0.64237
-0.69824
-0.746947
-0.789039
-0.825118
-0.855807
-0.881721
-0.903456
-0.921568
-0.93657
-0.948924
-0.959043
-0.967289
-0.973974
-0.979369
-0.983703
-0.987171
-0.989934
-0.992127
-0.99386
-0.995226
-0.996299
-0.997138
-0.997793
-0.998302
-0.998697
-0.999003
-0.999238
-0.99942
-0.999559
-0.999665
-0.999746
-0.999808
-0.999855
-0.999891
-0.999918
-0.999939
-0.999954
-0.999966
-0.999974
-0.999981
-0.999986
-0.999989
-0.999992
-0.999994
-0.999996
-0.999997
-0.999998
-0.999998
-0.999999
-0.999999
-0.999999
-0.999999
-1
-1
-1
-1
-1
-1
-1
-1
-1
-1
-1
-1
-1
-1
-1
-1
-1
-1
-1
-1
-1
-1
-1
-1
-1
-1
-1
-1
-1
-1
-1
-1
-1
-1
-1
-1
-1
-1
-1
-1
-1
-1
-1
-1
-1
-1
-1
-1
-1
-1
1
0.999966
0.99974
0.998912
0.996705
0.991921
0.982991
0.968109
0.945431
0.913304
0.870468
0.816208
0.75044
0.67371
0.587142
0.49233
0.391198
0.285851
0.178439
0.0710266
-0.0345011
-0.136511
-0.233664
-0.324928
-0.409579
-0.487176
-0.557531
-0.620669
-0.676793
-0.726235
-0.769425
-0.806857
-0.839057
-0.86656
-0.889897
-0.909573
-0.926063
-0.939805
-0.951194
-0.960586
-0.968292
-0.974585
-0.979701
-0.983843
-0.987182
-0.989863
-0.992009
-0.993718
-0.995077
-0.996152
-0.997
-0.997668
-0.998191
-0.998601
-0.99892
-0.999168
-0.999361
-0.99951
-0.999625
-0.999714
-0.999782
-0.999834
-0.999874
-0.999905
-0.999928
-0.999946
-0.999959
-0.999969
-0.999977
-0.999983
-0.999987
-0.99999
-0.999993
-0.999995
-0.999996
-0.999997
-0.999998
-0.999998
-0.999999
-0.999999
-0.999999
-1
-1
-1
-1
-1
-1
-1
-1
-1
-1
-1
-1
-1
-1
-1
-1
-1
-1
-1
-1
-1
-1
-1
-1
-1
-1
-1
-1
-1
-1
-1
-1
-1
-1
-1
-1
-1
-1
-1
-1
-1
-1
-1
-1
-1
-1
-1
1
0.999989
0.999906
0.999575
0.998618
0.996386
0.991921
0.983984
0.971133
0.951856
0.924727
0.888554
0.842516
0.786247
0.719879
0.644029
0.559752
0.468452
0.371781
0.271529
0.169519
0.067509
-0.0328819
-0.130231
-0.223347
-0.31129
-0.39337
-0.469137
-0.538355
-0.600982
-0.65713
-0.707039
-0.751045
-0.78955
-0.822999
-0.851857
-0.876592
-0.897663
-0.915507
-0.930533
-0.943119
-0.953608
-0.962306
-0.969485
-0.975384
-0.98021
-0.984143
-0.987335
-0.989916
-0.991994
-0.993663
-0.994998
-0.996062
-0.996909
-0.997579
-0.998109
-0.998526
-0.998854
-0.999111
-0.999312
-0.999469
-0.999591
-0.999685
-0.999758
-0.999815
-0.999858
-0.999892
-0.999918
-0.999937
-0.999952
-0.999964
-0.999973
-0.999979
-0.999984
-0.999988
-0.999991
-0.999993
-0.999995
-0.999996
-0.999997
-0.999998
-0.999998
-0.999999
-0.999999
-0.999999
-1
-1
-1
-1
-1
-1
-1
-1
-1
-1
-1
-1
-1
-1
-1
-1
-1
-1
-1
-1
-1
-1
-1
-1
-1
-1
-1
-1
-1
-1
-1
-1
-1
-1
-1
-1
-1
-1
-1
-1
-1
-1
-1
1
0.999996
0.999966
0.999836
0.99943
0.998415
0.99625
0.992161
0.985152
0.974053
0.957611
0.934592
0.9039
0.864682
0.816415
0.758953
0.692553
0.617852
0.535828
0.447729
0.354992
0.259164
0.161816
0.0644669
-0.0314711
-0.124744
-0.214286
-0.299236
-0.378943
-0.452956
-0.521014
-0.583022
-0.63903
-0.689203
-0.733802
-0.773153
-0.807633
-0.837643
-0.863598
-0.885909
-0.904979
-0.921189
-0.934894
-0.946425
-0.956078
-0.964122
-0.970796
-0.976309
-0.980844
-0.984561
-0.987595
-0.990063
-0.992063
-0.993678
-0.994978
-0.996022
-0.996857
-0.997523
-0.998052
-0.998472
-0.998804
-0.999066
-0.999273
-0.999435
-0.999561
-0.99966
-0.999738
-0.999798
-0.999844
-0.99988
-0.999908
-0.99993
-0.999946
-0.999959
-0.999969
-0.999976
-0.999982
-0.999986
-0.99999
-0.999992
-0.999994
-0.999996
-0.999997
-0.999997
-0.999998
-0.999999
-0.999999
-0.999999
-0.999999
-0.999999
-0.999999
-0.999999
-0.999999
-0.999999
-0.999999
-0.999999
-0.999999
-0.999999
-0.999999
-0.999999
-0.999999
-0.999999
-0.999999
-0.999999
-0.999999
-0.999999
-0.999999
-0.999999
-0.999999
-0.999999
-0.999999
-0.999999
-0.999999
-0.999999
-0.999999
-0.999999
-0.999999
-0.999999
-0.999999
-0.999999
-0.999999
-0.999999
-0.999999
-0.999999
-0.999999
-0.999999
-0.999999
-0.999999
1
0.999999
0.999988
0.999937
0.999768
0.999317
0.998295
0.99625
0.992551
0.986385
0.976794
0.962727
0.943118
0.916973
0.883453
0.841953
0.792153
0.734053
0.667978
0.594562
0.514705
0.429525
0.340288
0.248348
0.155075
0.0618019
-0.0302274
-0.119897
-0.206246
-0.288482
-0.365993
-0.438336
-0.505234
-0.566557
-0.622305
-0.672588
-0.717603
-0.757616
-0.792943
-0.823932
-0.850948
-0.874362
-0.894539
-0.911834
-0.926582
-0.939095
-0.949662
-0.958544
-0.965978
-0.972172
-0.977313
-0.981563
-0.985063
-0.987935
-0.990282
-0.992196
-0.993749
-0.995007
-0.996022
-0.996839
-0.997494
-0.998018
-0.998436
-0.998769
-0.999033
-0.999242
-0.999407
-0.999537
-0.99964
-0.99972
-0.999783
-0.999832
-0.99987
-0.9999
-0.999923
-0.99994
-0.999954
-0.999965
-0.999973
-0.99998
-0.999984
-0.999988
-0.999991
-0.999993
-0.999995
-0.999996
-0.999996
-0.999997
-0.999997
-0.999997
-0.999997
-0.999997
-0.999997
-0.999997
-0.999997
-0.999997
-0.999997
-0.999997
-0.999997
-0.999997
-0.999997
-0.999997
-0.999997
-0.999997
-0.999997
-0.999997
-0.999997
-0.999997
-0.999997
-0.999997
-0.999997
-0.999997
-0.999997
-0.999997
-0.999997
-0.999997
-0.999997
-0.999997
-0.999997
-0.999997
-0.999997
-0.999997
-0.999997
-0.999997
-0.999997
-0.999997
-0.999997
-0.999997
1
1
0.999996
0.999976
0.999907
0.99971
0.999238
0.998242
0.996345
0.993025
0.987615
0.979319
0.967252
0.950492
0.928146
0.899415
0.863661
0.820458
0.769631
0.711275
0.645752
0.573676
0.49588
0.413369
0.327271
0.238781
0.149112
0.0594422
-0.0291204
-0.115574
-0.199047
-0.27881
-0.354285
-0.425042
-0.490796
-0.551394
-0.606797
-0.65707
-0.702361
-0.742885
-0.778906
-0.810724
-0.838663
-0.863053
-0.88423
-0.902518
-0.918233
-0.93167
-0.943106
-0.952795
-0.960967
-0.967833
-0.973576
-0.978362
-0.982336
-0.985622
-0.988331
-0.990557
-0.992378
-0.993865
-0.995075
-0.996056
-0.996849
-0.997489
-0.998004
-0.998417
-0.998747
-0.99901
-0.99922
-0.999387
-0.999519
-0.999623
-0.999705
-0.99977
-0.999821
-0.999861
-0.999892
-0.999916
-0.999935
-0.99995
-0.999962
-0.99997
-0.999977
-0.999982
-0.999986
-0.999988
-0.999989
-0.99999
-0.99999
-0.99999
-0.99999
-0.99999
-0.99999
-0.99999
-0.99999
-0.99999
-0.99999
-0.99999
-0.99999
-0.99999
-0.99999
-0.99999
-0.99999
-0.99999
-0.99999
-0.99999
-0.99999
-0.99999
-0.99999
-0.99999
-0.99999
-0.99999
-0.99999
-0.99999
-0.99999
-0.99999
-0.99999
-0.99999
-0.99999
-0.99999
-0.99999
-0.99999
-0.99999
-0.99999
-0.99999
-0.99999
-0.99999
-0.99999
1
1
0.999998
0.999991
0.999963
0.999879
0.999665
0.999191
0.998242
0.996503
0.99354
0.9888
0.981617
0.971242
0.956877
0.937723
0.913035
0.882176
0.844661
0.800199
0.748717
0.69037
0.62554
0.554816
0.478968
0.398906
0.315641
0.230242
0.143788
0.0573336
-0.0281267
-0.111688
-0.192553
-0.27005
-0.343632
-0.412886
-0.477523
-0.537372
-0.592368
-0.64254
-0.687996
-0.728905
-0.765491
-0.798012
-0.826751
-0.852007
-0.874082
-0.893278
-0.909887
-0.92419
-0.936449
-0.94691
-0.955799
-0.96332
-0.969658
-0.97498
-0.97943
-0.983139
-0.986219
-0.988768
-0.99087
-0.992599
-0.994016
-0.995173
-0.996117
-0.996883
-0.997505
-0.998007
-0.998411
-0.998736
-0.998997
-0.999206
-0.999372
-0.999505
-0.99961
-0.999694
-0.99976
-0.999812
-0.999853
-0.999886
-0.999911
-0.999931
-0.999946
-0.999956
-0.999963
-0.999967
-0.999969
-0.999969
-0.999969
-0.999969
-0.999969
-0.999969
-0.999969
-0.999969
-0.999969
-0.999969
-0.999969
-0.999969
-0.999969
-0.999969
-0.999969
-0.999969
-0.999969
-0.999969
-0.999969
-0.999969
-0.999969
-0.999969
-0.999969
-0.999969
-0.999969
-0.999969
-0.999969
-0.999969
-0.999969
-0.999969
-0.999969
-0.999969
-0.999969
-0.999969
-0.999969
-0.999969
-0.999969
-0.999969
-0.999969
-0.999969
-0.999969
-0.999969
1
1
0.999999
0.999997
0.999985
0.99995
0.999855
0.999634
0.99917
0.998281
0.996701
0.994067
0.989917
0.983692
0.974754
0.96241
0.945952
0.924693
0.898016
0.86541
0.826512
0.781132
0.729268
0.671117
0.607068
0.53768
0.463667
0.385859
0.305168
0.222557
0.138996
0.0554345
-0.0272282
-0.108169
-0.186656
-0.262066
-0.333885
-0.401714
-0.465265
-0.524357
-0.578903
-0.628904
-0.674433
-0.715626
-0.752668
-0.785781
-0.815214
-0.841236
-0.86412
-0.884143
-0.901578
-0.916689
-0.929726
-0.940924
-0.950502
-0.958661
-0.965584
-0.971436
-0.976363
-0.980498
-0.983955
-0.986837
-0.98923
-0.991211
-0.992846
-0.994192
-0.995296
-0.9962
-0.996937
-0.997537
-0.998023
-0.998418
-0.998736
-0.998992
-0.999198
-0.999363
-0.999496
-0.999602
-0.999686
-0.999753
-0.999806
-0.999847
-0.999876
-0.999895
-0.999906
-0.999911
-0.999913
-0.999914
-0.999914
-0.999914
-0.999914
-0.999914
-0.999914
-0.999914
-0.999914
-0.999914
-0.999914
-0.999914
-0.999914
-0.999914
-0.999914
-0.999914
-0.999914
-0.999914
-0.999914
-0.999914
-0.999914
-0.999914
-0.999914
-0.999914
-0.999914
-0.999914
-0.999914
-0.999914
-0.999914
-0.999914
-0.999914
-0.999914
-0.999914
-0.999914
-0.999914
-0.999914
-0.999914
-0.999914
-0.999914
-0.999914
-0.999914
-0.999914
1
1
1
0.999999
0.999994
0.999979
0.999938
0.999837
0.999614
0.99917
0.998347
0.99692
0.994586
0.990955
0.985554
0.97784
0.96721
0.953038
0.934697
0.911602
0.883239
0.849203
0.809225
0.763189
0.711148
0.653326
0.590106
0.522024
0.449739
0.374011
0.295673
0.215593
0.134653
0.0537123
-0.0264106
-0.104962
-0.18127
-0.254751
-0.324923
-0.391401
-0.453902
-0.512236
-0.566301
-0.616076
-0.661607
-0.702998
-0.740403
-0.774014
-0.804049
-0.830747
-0.854358
-0.875135
-0.893332
-0.909196
-0.922964
-0.934863
-0.945104
-0.953881
-0.961375
-0.96775
-0.973151
-0.977713
-0.981552
-0.984772
-0.987463
-0.989706
-0.991569
-0.993113
-0.994387
-0.995437
-0.996299
-0.997005
-0.997582
-0.998052
-0.998435
-0.998745
-0.998996
-0.9992
-0.999364
-0.999495
-0.999598
-0.999673
-0.999723
-0.999753
-0.999767
-0.999772
-0.999774
-0.999775
-0.999775
-0.999775
-0.999775
-0.999775
-0.999775
-0.999775
-0.999775
-0.999775
-0.999775
-0.999775
-0.999775
-0.999775
-0.999775
-0.999775
-0.999775
-0.999775
-0.999775
-0.999775
-0.999775
-0.999775
-0.999775
-0.999775
-0.999775
-0.999775
-0.999775
-0.999775
-0.999775
-0.999775
-0.999775
-0.999775
-0.999775
-0.999775
-0.999775
-0.999775
-0.999775
-0.999775
-0.999775
-0.999775
-0.999775
-0.999775
1
1
1
1
0.999998
0.999992
0.999974
0.999928
0.999823
0.999606
0.999186
0.998431
0.997149
0.995084
0.991908
0.987218
0.980549
0.971379
0.959152
0.943302
0.923281
0.898588
0.8688
0.833596
0.79278
0.746295
0.694232
0.636829
0.574466
0.507648
0.436989
0.363191
0.287011
0.209245
0.130693
0.0521413
-0.0256625
-0.102025
-0.176324
-0.248017
-0.316645
-0.381842
-0.443328
-0.500911
-0.554476
-0.603983
-0.649457
-0.690976
-0.728667
-0.762694
-0.793248
-0.820544
-0.844806
-0.866269
-0.885168
-0.901733
-0.91619
-0.928754
-0.939627
-0.949001
-0.957051
-0.963939
-0.96981
-0.974797
-0.979019
-0.982581
-0.985577
-0.988089
-0.990189
-0.991938
-0.993392
-0.994596
-0.995592
-0.996413
-0.997088
-0.997643
-0.998098
-0.998471
-0.998774
-0.999014
-0.999194
-0.999317
-0.999391
-0.999429
-0.999444
-0.99945
-0.999452
-0.999452
-0.999453
-0.999453
-0.999453
-0.999453
-0.999453
-0.999453
-0.999453
-0.999453
-0.999453
-0.999453
-0.999453
-0.999453
-0.999453
-0.999453
-0.999453
-0.999453
-0.999453
-0.999453
-0.999453
-0.999453
-0.999453
-0.999453
-0.999453
-0.999453
-0.999453
-0.999453
-0.999453
-0.999453
-0.999453
-0.999453
-0.999453
-0.999453
-0.999453
-0.999453
-0.999453
-0.999453
-0.999453
-0.999453
-0.999453
-0.999453
1
1
1
1
0.999999
0.999997
0.999989
0.999969
0.99992
0.999815
0.999606
0.999214
0.998526
0.997379
0.995555
0.992776
0.9887
0.982926
0.975001
0.964435
0.950717
0.933341
0.911827
0.88575
0.85476
0.818605
0.777148
0.730375
0.678405
0.621486
0.559987
0.494388
0.425263
0.353257
0.279069
0.203426
0.127063
0.0507005
-0.0249745
-0.0993219
-0.171763
-0.241789
-0.308969
-0.37295
-0.433458
-0.4903
-0.543352
-0.59256
-0.637929
-0.679517
-0.717428
-0.7518
-0.782802
-0.810624
-0.835472
-0.857559
-0.877103
-0.89432
-0.909422
-0.922615
-0.934094
-0.944042
-0.952631
-0.96002
-0.966353
-0.971762
-0.976367
-0.980275
-0.983579
-0.986366
-0.988708
-0.990671
-0.992313
-0.993682
-0.994823
-0.995773
-0.996562
-0.997213
-0.997737
-0.998139
-0.998422
-0.998597
-0.998688
-0.998729
-0.998744
-0.99875
-0.998752
-0.998752
-0.998753
-0.998753
-0.998753
-0.998753
-0.998753
-0.998753
-0.998753
-0.998753
-0.998753
-0.998753
-0.998753
-0.998753
-0.998753
-0.998753
-0.998753
-0.998753
-0.998753
-0.998753
-0.998753
-0.998753
-0.998753
-0.998753
-0.998753
-0.998753
-0.998753
-0.998753
-0.998753
-0.998753
-0.998753
-0.998753
-0.998753
-0.998753
-0.998753
-0.998753
-0.998753
-0.998753
-0.998753
-0.998753
-0.998753
-0.998753
1
1
1
1
1
0.999999
0.999995
0.999987
0.999964
0.999915
0.999812
0.999612
0.99925
0.998626
0.997603
0.995994
0.993563
0.990017
0.985012
0.978153
0.969008
0.957119
0.942021
0.923264
0.90043
0.873155
0.841152
0.804227
0.762286
0.715353
0.663564
0.607172
0.546536
0.482109
0.414429
0.344095
0.271751
0.198068
0.12372
0.0493728
-0.0243391
-0.0968224
-0.167538
-0.236009
-0.301825
-0.36465
-0.424218
-0.480332
-0.532864
-0.581749
-0.626975
-0.668583
-0.706656
-0.741312
-0.772699
-0.800986
-0.826358
-0.849012
-0.869149
-0.886971
-0.902679
-0.916466
-0.928521
-0.939021
-0.948132
-0.956009
-0.962795
-0.968622
-0.973608
-0.977861
-0.981477
-0.984544
-0.987139
-0.989331
-0.991183
-0.992744
-0.994052
-0.995126
-0.995966
-0.996572
-0.996958
-0.997169
-0.997267
-0.997307
-0.997323
-0.997328
-0.99733
-0.997331
-0.997331
-0.997331
-0.997331
-0.997331
-0.997331
-0.997331
-0.997331
-0.997331
-0.997331
-0.997331
-0.997331
-0.997331
-0.997331